<?xml version="1.0" encoding="UTF-8"?>

<!-- generated on Fri 06 Apr 2018 05:25:52 PM IST by SUMO gui Version 0.30.0
<?xml version="1.0" encoding="UTF-8"?>

<configuration xmlns:xsi="http://www.w3.org/2001/XMLSchema-instance" xsi:noNamespaceSchemaLocation="http://sumo.dlr.de/xsd/sumoConfiguration.xsd">

    <input>
        <net-file value="osm.net.xml"/>
        <route-files value="osm.passenger.trips.xml,osm.bus.trips.xml"/>
        <additional-files value="osm.poly.xml,osm_stops.add.xml,tl.add.xml,tl.states.xml,tl.other.xml,induction_loops/e1.add.xml,edge.info.xml"/>
    </input>

    <output>
        <tripinfo-output value="trip.infos.xml"/>
    </output>

    <processing>
        <ignore-route-errors value="true"/>
    </processing>

    <routing>
        <device.rerouting.adaptation-steps value="180"/>
    </routing>

    <report>
        <verbose value="true"/>
        <duration-log.statistics value="true"/>
        <no-step-log value="true"/>
    </report>

    <traci_server>
        <remote-port value="54879"/>
    </traci_server>

    <gui_only>
        <gui-settings-file value="osm.view.xml"/>
    </gui_only>

</configuration>
-->

<detector xmlns:xsi="http://www.w3.org/2001/XMLSchema-instance" xsi:noNamespaceSchemaLocation="http://sumo.dlr.de/xsd/det_e1_file.xsd">
    <interval begin="0.00" end="4.00" id="TLS354512_actuated_InductLoopOn_-138139938#0.74_0" nVehContrib="0" flow="0.00" occupancy="0.00" speed="-1.00" length="-1.00" nVehEntered="0"/>
    <interval begin="0.00" end="4.00" id="TLS354512_actuated_InductLoopOn_-138139938#0.74_1" nVehContrib="0" flow="0.00" occupancy="0.00" speed="-1.00" length="-1.00" nVehEntered="0"/>
    <interval begin="0.00" end="4.00" id="TLS354512_actuated_InductLoopOn_-35202667#0_0" nVehContrib="0" flow="0.00" occupancy="0.00" speed="-1.00" length="-1.00" nVehEntered="0"/>
    <interval begin="0.00" end="4.00" id="TLS354512_actuated_InductLoopOn_-35202667#0_1" nVehContrib="0" flow="0.00" occupancy="0.00" speed="-1.00" length="-1.00" nVehEntered="0"/>
    <interval begin="0.00" end="4.00" id="TLS354512_actuated_InductLoopOn_374366365#4_0" nVehContrib="0" flow="0.00" occupancy="0.00" speed="-1.00" length="-1.00" nVehEntered="0"/>
    <interval begin="0.00" end="4.00" id="TLS354512_actuated_InductLoopOn_33708057#3_0" nVehContrib="0" flow="0.00" occupancy="0.00" speed="-1.00" length="-1.00" nVehEntered="0"/>
    <interval begin="0.00" end="4.00" id="TLS354512_actuated_InductLoopOn_33708057#3_1" nVehContrib="0" flow="0.00" occupancy="0.00" speed="-1.00" length="-1.00" nVehEntered="0"/>
    <interval begin="4.00" end="8.00" id="TLS354512_actuated_InductLoopOn_-138139938#0.74_0" nVehContrib="0" flow="0.00" occupancy="0.00" speed="-1.00" length="-1.00" nVehEntered="0"/>
    <interval begin="4.00" end="8.00" id="TLS354512_actuated_InductLoopOn_-138139938#0.74_1" nVehContrib="0" flow="0.00" occupancy="0.00" speed="-1.00" length="-1.00" nVehEntered="0"/>
    <interval begin="4.00" end="8.00" id="TLS354512_actuated_InductLoopOn_-35202667#0_0" nVehContrib="0" flow="0.00" occupancy="0.00" speed="-1.00" length="-1.00" nVehEntered="0"/>
    <interval begin="4.00" end="8.00" id="TLS354512_actuated_InductLoopOn_-35202667#0_1" nVehContrib="0" flow="0.00" occupancy="0.00" speed="-1.00" length="-1.00" nVehEntered="0"/>
    <interval begin="4.00" end="8.00" id="TLS354512_actuated_InductLoopOn_374366365#4_0" nVehContrib="0" flow="0.00" occupancy="0.00" speed="-1.00" length="-1.00" nVehEntered="0"/>
    <interval begin="4.00" end="8.00" id="TLS354512_actuated_InductLoopOn_33708057#3_0" nVehContrib="0" flow="0.00" occupancy="0.00" speed="-1.00" length="-1.00" nVehEntered="0"/>
    <interval begin="4.00" end="8.00" id="TLS354512_actuated_InductLoopOn_33708057#3_1" nVehContrib="0" flow="0.00" occupancy="0.00" speed="-1.00" length="-1.00" nVehEntered="0"/>
    <interval begin="8.00" end="12.00" id="TLS354512_actuated_InductLoopOn_-138139938#0.74_0" nVehContrib="0" flow="0.00" occupancy="0.00" speed="-1.00" length="-1.00" nVehEntered="0"/>
    <interval begin="8.00" end="12.00" id="TLS354512_actuated_InductLoopOn_-138139938#0.74_1" nVehContrib="0" flow="0.00" occupancy="0.00" speed="-1.00" length="-1.00" nVehEntered="0"/>
    <interval begin="8.00" end="12.00" id="TLS354512_actuated_InductLoopOn_-35202667#0_0" nVehContrib="0" flow="0.00" occupancy="0.00" speed="-1.00" length="-1.00" nVehEntered="0"/>
    <interval begin="8.00" end="12.00" id="TLS354512_actuated_InductLoopOn_-35202667#0_1" nVehContrib="0" flow="0.00" occupancy="0.00" speed="-1.00" length="-1.00" nVehEntered="0"/>
    <interval begin="8.00" end="12.00" id="TLS354512_actuated_InductLoopOn_374366365#4_0" nVehContrib="0" flow="0.00" occupancy="0.00" speed="-1.00" length="-1.00" nVehEntered="0"/>
    <interval begin="8.00" end="12.00" id="TLS354512_actuated_InductLoopOn_33708057#3_0" nVehContrib="0" flow="0.00" occupancy="0.00" speed="-1.00" length="-1.00" nVehEntered="0"/>
    <interval begin="8.00" end="12.00" id="TLS354512_actuated_InductLoopOn_33708057#3_1" nVehContrib="0" flow="0.00" occupancy="0.00" speed="-1.00" length="-1.00" nVehEntered="0"/>
    <interval begin="12.00" end="16.00" id="TLS354512_actuated_InductLoopOn_-138139938#0.74_0" nVehContrib="0" flow="0.00" occupancy="0.00" speed="-1.00" length="-1.00" nVehEntered="0"/>
    <interval begin="12.00" end="16.00" id="TLS354512_actuated_InductLoopOn_-138139938#0.74_1" nVehContrib="0" flow="0.00" occupancy="0.00" speed="-1.00" length="-1.00" nVehEntered="0"/>
    <interval begin="12.00" end="16.00" id="TLS354512_actuated_InductLoopOn_-35202667#0_0" nVehContrib="0" flow="0.00" occupancy="0.00" speed="-1.00" length="-1.00" nVehEntered="0"/>
    <interval begin="12.00" end="16.00" id="TLS354512_actuated_InductLoopOn_-35202667#0_1" nVehContrib="0" flow="0.00" occupancy="0.00" speed="-1.00" length="-1.00" nVehEntered="0"/>
    <interval begin="12.00" end="16.00" id="TLS354512_actuated_InductLoopOn_374366365#4_0" nVehContrib="0" flow="0.00" occupancy="0.00" speed="-1.00" length="-1.00" nVehEntered="0"/>
    <interval begin="12.00" end="16.00" id="TLS354512_actuated_InductLoopOn_33708057#3_0" nVehContrib="0" flow="0.00" occupancy="0.00" speed="-1.00" length="-1.00" nVehEntered="0"/>
    <interval begin="12.00" end="16.00" id="TLS354512_actuated_InductLoopOn_33708057#3_1" nVehContrib="0" flow="0.00" occupancy="0.00" speed="-1.00" length="-1.00" nVehEntered="0"/>
    <interval begin="16.00" end="20.00" id="TLS354512_actuated_InductLoopOn_-138139938#0.74_0" nVehContrib="0" flow="0.00" occupancy="0.00" speed="-1.00" length="-1.00" nVehEntered="0"/>
    <interval begin="16.00" end="20.00" id="TLS354512_actuated_InductLoopOn_-138139938#0.74_1" nVehContrib="1" flow="900.00" occupancy="9.88" speed="12.65" length="5.00" nVehEntered="1"/>
    <interval begin="16.00" end="20.00" id="TLS354512_actuated_InductLoopOn_-35202667#0_0" nVehContrib="0" flow="0.00" occupancy="0.00" speed="-1.00" length="-1.00" nVehEntered="0"/>
    <interval begin="16.00" end="20.00" id="TLS354512_actuated_InductLoopOn_-35202667#0_1" nVehContrib="0" flow="0.00" occupancy="0.00" speed="-1.00" length="-1.00" nVehEntered="0"/>
    <interval begin="16.00" end="20.00" id="TLS354512_actuated_InductLoopOn_374366365#4_0" nVehContrib="0" flow="0.00" occupancy="0.00" speed="-1.00" length="-1.00" nVehEntered="0"/>
    <interval begin="16.00" end="20.00" id="TLS354512_actuated_InductLoopOn_33708057#3_0" nVehContrib="0" flow="0.00" occupancy="0.00" speed="-1.00" length="-1.00" nVehEntered="0"/>
    <interval begin="16.00" end="20.00" id="TLS354512_actuated_InductLoopOn_33708057#3_1" nVehContrib="0" flow="0.00" occupancy="0.00" speed="-1.00" length="-1.00" nVehEntered="0"/>
    <interval begin="20.00" end="24.00" id="TLS354512_actuated_InductLoopOn_-138139938#0.74_0" nVehContrib="1" flow="900.00" occupancy="9.47" speed="13.20" length="5.00" nVehEntered="1"/>
    <interval begin="20.00" end="24.00" id="TLS354512_actuated_InductLoopOn_-138139938#0.74_1" nVehContrib="0" flow="0.00" occupancy="0.00" speed="-1.00" length="-1.00" nVehEntered="0"/>
    <interval begin="20.00" end="24.00" id="TLS354512_actuated_InductLoopOn_-35202667#0_0" nVehContrib="0" flow="0.00" occupancy="0.00" speed="-1.00" length="-1.00" nVehEntered="0"/>
    <interval begin="20.00" end="24.00" id="TLS354512_actuated_InductLoopOn_-35202667#0_1" nVehContrib="0" flow="0.00" occupancy="0.00" speed="-1.00" length="-1.00" nVehEntered="0"/>
    <interval begin="20.00" end="24.00" id="TLS354512_actuated_InductLoopOn_374366365#4_0" nVehContrib="0" flow="0.00" occupancy="0.00" speed="-1.00" length="-1.00" nVehEntered="0"/>
    <interval begin="20.00" end="24.00" id="TLS354512_actuated_InductLoopOn_33708057#3_0" nVehContrib="0" flow="0.00" occupancy="0.00" speed="-1.00" length="-1.00" nVehEntered="0"/>
    <interval begin="20.00" end="24.00" id="TLS354512_actuated_InductLoopOn_33708057#3_1" nVehContrib="0" flow="0.00" occupancy="0.00" speed="-1.00" length="-1.00" nVehEntered="0"/>
    <interval begin="24.00" end="28.00" id="TLS354512_actuated_InductLoopOn_-138139938#0.74_0" nVehContrib="0" flow="0.00" occupancy="0.00" speed="-1.00" length="-1.00" nVehEntered="0"/>
    <interval begin="24.00" end="28.00" id="TLS354512_actuated_InductLoopOn_-138139938#0.74_1" nVehContrib="1" flow="900.00" occupancy="11.11" speed="11.26" length="5.00" nVehEntered="1"/>
    <interval begin="24.00" end="28.00" id="TLS354512_actuated_InductLoopOn_-35202667#0_0" nVehContrib="0" flow="0.00" occupancy="0.00" speed="-1.00" length="-1.00" nVehEntered="0"/>
    <interval begin="24.00" end="28.00" id="TLS354512_actuated_InductLoopOn_-35202667#0_1" nVehContrib="0" flow="0.00" occupancy="0.00" speed="-1.00" length="-1.00" nVehEntered="0"/>
    <interval begin="24.00" end="28.00" id="TLS354512_actuated_InductLoopOn_374366365#4_0" nVehContrib="0" flow="0.00" occupancy="0.00" speed="-1.00" length="-1.00" nVehEntered="0"/>
    <interval begin="24.00" end="28.00" id="TLS354512_actuated_InductLoopOn_33708057#3_0" nVehContrib="2" flow="1800.00" occupancy="22.03" speed="11.37" length="5.00" nVehEntered="2"/>
    <interval begin="24.00" end="28.00" id="TLS354512_actuated_InductLoopOn_33708057#3_1" nVehContrib="0" flow="0.00" occupancy="5.54" speed="-1.00" length="-1.00" nVehEntered="1"/>
    <interval begin="28.00" end="32.00" id="TLS354512_actuated_InductLoopOn_-138139938#0.74_0" nVehContrib="0" flow="0.00" occupancy="0.00" speed="-1.00" length="-1.00" nVehEntered="0"/>
    <interval begin="28.00" end="32.00" id="TLS354512_actuated_InductLoopOn_-138139938#0.74_1" nVehContrib="0" flow="0.00" occupancy="0.00" speed="-1.00" length="-1.00" nVehEntered="0"/>
    <interval begin="28.00" end="32.00" id="TLS354512_actuated_InductLoopOn_-35202667#0_0" nVehContrib="0" flow="0.00" occupancy="0.00" speed="-1.00" length="-1.00" nVehEntered="0"/>
    <interval begin="28.00" end="32.00" id="TLS354512_actuated_InductLoopOn_-35202667#0_1" nVehContrib="0" flow="0.00" occupancy="0.00" speed="-1.00" length="-1.00" nVehEntered="0"/>
    <interval begin="28.00" end="32.00" id="TLS354512_actuated_InductLoopOn_374366365#4_0" nVehContrib="0" flow="0.00" occupancy="0.00" speed="-1.00" length="-1.00" nVehEntered="0"/>
    <interval begin="28.00" end="32.00" id="TLS354512_actuated_InductLoopOn_33708057#3_0" nVehContrib="0" flow="0.00" occupancy="0.00" speed="-1.00" length="-1.00" nVehEntered="0"/>
    <interval begin="28.00" end="32.00" id="TLS354512_actuated_InductLoopOn_33708057#3_1" nVehContrib="1" flow="900.00" occupancy="2.77" speed="15.04" length="5.00" nVehEntered="0"/>
    <interval begin="32.00" end="36.00" id="TLS354512_actuated_InductLoopOn_-138139938#0.74_0" nVehContrib="0" flow="0.00" occupancy="0.00" speed="-1.00" length="-1.00" nVehEntered="0"/>
    <interval begin="32.00" end="36.00" id="TLS354512_actuated_InductLoopOn_-138139938#0.74_1" nVehContrib="0" flow="0.00" occupancy="0.00" speed="-1.00" length="-1.00" nVehEntered="0"/>
    <interval begin="32.00" end="36.00" id="TLS354512_actuated_InductLoopOn_-35202667#0_0" nVehContrib="0" flow="0.00" occupancy="0.00" speed="-1.00" length="-1.00" nVehEntered="0"/>
    <interval begin="32.00" end="36.00" id="TLS354512_actuated_InductLoopOn_-35202667#0_1" nVehContrib="0" flow="0.00" occupancy="0.00" speed="-1.00" length="-1.00" nVehEntered="0"/>
    <interval begin="32.00" end="36.00" id="TLS354512_actuated_InductLoopOn_374366365#4_0" nVehContrib="0" flow="0.00" occupancy="0.00" speed="-1.00" length="-1.00" nVehEntered="0"/>
    <interval begin="32.00" end="36.00" id="TLS354512_actuated_InductLoopOn_33708057#3_0" nVehContrib="0" flow="0.00" occupancy="0.00" speed="-1.00" length="-1.00" nVehEntered="0"/>
    <interval begin="32.00" end="36.00" id="TLS354512_actuated_InductLoopOn_33708057#3_1" nVehContrib="0" flow="0.00" occupancy="0.00" speed="-1.00" length="-1.00" nVehEntered="0"/>
    <interval begin="36.00" end="40.00" id="TLS354512_actuated_InductLoopOn_-138139938#0.74_0" nVehContrib="0" flow="0.00" occupancy="0.00" speed="-1.00" length="-1.00" nVehEntered="0"/>
    <interval begin="36.00" end="40.00" id="TLS354512_actuated_InductLoopOn_-138139938#0.74_1" nVehContrib="1" flow="900.00" occupancy="12.94" speed="9.66" length="5.00" nVehEntered="1"/>
    <interval begin="36.00" end="40.00" id="TLS354512_actuated_InductLoopOn_-35202667#0_0" nVehContrib="0" flow="0.00" occupancy="0.00" speed="-1.00" length="-1.00" nVehEntered="0"/>
    <interval begin="36.00" end="40.00" id="TLS354512_actuated_InductLoopOn_-35202667#0_1" nVehContrib="1" flow="900.00" occupancy="13.48" speed="12.58" length="5.00" nVehEntered="2"/>
    <interval begin="36.00" end="40.00" id="TLS354512_actuated_InductLoopOn_374366365#4_0" nVehContrib="0" flow="0.00" occupancy="0.00" speed="-1.00" length="-1.00" nVehEntered="0"/>
    <interval begin="36.00" end="40.00" id="TLS354512_actuated_InductLoopOn_33708057#3_0" nVehContrib="0" flow="0.00" occupancy="0.00" speed="-1.00" length="-1.00" nVehEntered="0"/>
    <interval begin="36.00" end="40.00" id="TLS354512_actuated_InductLoopOn_33708057#3_1" nVehContrib="0" flow="0.00" occupancy="0.00" speed="-1.00" length="-1.00" nVehEntered="0"/>
    <interval begin="40.00" end="44.00" id="TLS354512_actuated_InductLoopOn_-138139938#0.74_0" nVehContrib="0" flow="0.00" occupancy="0.00" speed="-1.00" length="-1.00" nVehEntered="0"/>
    <interval begin="40.00" end="44.00" id="TLS354512_actuated_InductLoopOn_-138139938#0.74_1" nVehContrib="0" flow="0.00" occupancy="0.00" speed="-1.00" length="-1.00" nVehEntered="0"/>
    <interval begin="40.00" end="44.00" id="TLS354512_actuated_InductLoopOn_-35202667#0_0" nVehContrib="0" flow="0.00" occupancy="8.90" speed="-1.00" length="-1.00" nVehEntered="1"/>
    <interval begin="40.00" end="44.00" id="TLS354512_actuated_InductLoopOn_-35202667#0_1" nVehContrib="1" flow="900.00" occupancy="8.91" speed="10.03" length="5.00" nVehEntered="0"/>
    <interval begin="40.00" end="44.00" id="TLS354512_actuated_InductLoopOn_374366365#4_0" nVehContrib="0" flow="0.00" occupancy="0.00" speed="-1.00" length="-1.00" nVehEntered="0"/>
    <interval begin="40.00" end="44.00" id="TLS354512_actuated_InductLoopOn_33708057#3_0" nVehContrib="0" flow="0.00" occupancy="0.00" speed="-1.00" length="-1.00" nVehEntered="0"/>
    <interval begin="40.00" end="44.00" id="TLS354512_actuated_InductLoopOn_33708057#3_1" nVehContrib="0" flow="0.00" occupancy="0.00" speed="-1.00" length="-1.00" nVehEntered="0"/>
    <interval begin="44.00" end="48.00" id="TLS354512_actuated_InductLoopOn_-138139938#0.74_0" nVehContrib="0" flow="0.00" occupancy="0.00" speed="-1.00" length="-1.00" nVehEntered="0"/>
    <interval begin="44.00" end="48.00" id="TLS354512_actuated_InductLoopOn_-138139938#0.74_1" nVehContrib="0" flow="0.00" occupancy="0.00" speed="-1.00" length="-1.00" nVehEntered="0"/>
    <interval begin="44.00" end="48.00" id="TLS354512_actuated_InductLoopOn_-35202667#0_0" nVehContrib="1" flow="900.00" occupancy="0.52" speed="13.27" length="5.00" nVehEntered="0"/>
    <interval begin="44.00" end="48.00" id="TLS354512_actuated_InductLoopOn_-35202667#0_1" nVehContrib="0" flow="0.00" occupancy="0.00" speed="-1.00" length="-1.00" nVehEntered="0"/>
    <interval begin="44.00" end="48.00" id="TLS354512_actuated_InductLoopOn_374366365#4_0" nVehContrib="0" flow="0.00" occupancy="0.00" speed="-1.00" length="-1.00" nVehEntered="0"/>
    <interval begin="44.00" end="48.00" id="TLS354512_actuated_InductLoopOn_33708057#3_0" nVehContrib="0" flow="0.00" occupancy="0.00" speed="-1.00" length="-1.00" nVehEntered="0"/>
    <interval begin="44.00" end="48.00" id="TLS354512_actuated_InductLoopOn_33708057#3_1" nVehContrib="0" flow="0.00" occupancy="0.00" speed="-1.00" length="-1.00" nVehEntered="0"/>
    <interval begin="48.00" end="52.00" id="TLS354512_actuated_InductLoopOn_-138139938#0.74_0" nVehContrib="0" flow="0.00" occupancy="0.00" speed="-1.00" length="-1.00" nVehEntered="0"/>
    <interval begin="48.00" end="52.00" id="TLS354512_actuated_InductLoopOn_-138139938#0.74_1" nVehContrib="0" flow="0.00" occupancy="0.00" speed="-1.00" length="-1.00" nVehEntered="0"/>
    <interval begin="48.00" end="52.00" id="TLS354512_actuated_InductLoopOn_-35202667#0_0" nVehContrib="0" flow="0.00" occupancy="0.00" speed="-1.00" length="-1.00" nVehEntered="0"/>
    <interval begin="48.00" end="52.00" id="TLS354512_actuated_InductLoopOn_-35202667#0_1" nVehContrib="0" flow="0.00" occupancy="37.11" speed="-1.00" length="-1.00" nVehEntered="1"/>
    <interval begin="48.00" end="52.00" id="TLS354512_actuated_InductLoopOn_374366365#4_0" nVehContrib="0" flow="0.00" occupancy="0.00" speed="-1.00" length="-1.00" nVehEntered="0"/>
    <interval begin="48.00" end="52.00" id="TLS354512_actuated_InductLoopOn_33708057#3_0" nVehContrib="0" flow="0.00" occupancy="0.00" speed="-1.00" length="-1.00" nVehEntered="0"/>
    <interval begin="48.00" end="52.00" id="TLS354512_actuated_InductLoopOn_33708057#3_1" nVehContrib="0" flow="0.00" occupancy="0.00" speed="-1.00" length="-1.00" nVehEntered="0"/>
    <interval begin="52.00" end="56.00" id="TLS354512_actuated_InductLoopOn_-138139938#0.74_0" nVehContrib="0" flow="0.00" occupancy="0.00" speed="-1.00" length="-1.00" nVehEntered="0"/>
    <interval begin="52.00" end="56.00" id="TLS354512_actuated_InductLoopOn_-138139938#0.74_1" nVehContrib="1" flow="900.00" occupancy="9.15" speed="13.66" length="5.00" nVehEntered="1"/>
    <interval begin="52.00" end="56.00" id="TLS354512_actuated_InductLoopOn_-35202667#0_0" nVehContrib="0" flow="0.00" occupancy="0.00" speed="-1.00" length="-1.00" nVehEntered="0"/>
    <interval begin="52.00" end="56.00" id="TLS354512_actuated_InductLoopOn_-35202667#0_1" nVehContrib="0" flow="0.00" occupancy="100.00" speed="-1.00" length="-1.00" nVehEntered="0"/>
    <interval begin="52.00" end="56.00" id="TLS354512_actuated_InductLoopOn_374366365#4_0" nVehContrib="0" flow="0.00" occupancy="0.00" speed="-1.00" length="-1.00" nVehEntered="0"/>
    <interval begin="52.00" end="56.00" id="TLS354512_actuated_InductLoopOn_33708057#3_0" nVehContrib="0" flow="0.00" occupancy="0.00" speed="-1.00" length="-1.00" nVehEntered="0"/>
    <interval begin="52.00" end="56.00" id="TLS354512_actuated_InductLoopOn_33708057#3_1" nVehContrib="0" flow="0.00" occupancy="0.00" speed="-1.00" length="-1.00" nVehEntered="0"/>
    <interval begin="56.00" end="60.00" id="TLS354512_actuated_InductLoopOn_-138139938#0.74_0" nVehContrib="1" flow="900.00" occupancy="8.33" speed="15.01" length="5.00" nVehEntered="1"/>
    <interval begin="56.00" end="60.00" id="TLS354512_actuated_InductLoopOn_-138139938#0.74_1" nVehContrib="0" flow="0.00" occupancy="0.00" speed="-1.00" length="-1.00" nVehEntered="0"/>
    <interval begin="56.00" end="60.00" id="TLS354512_actuated_InductLoopOn_-35202667#0_0" nVehContrib="0" flow="0.00" occupancy="0.00" speed="-1.00" length="-1.00" nVehEntered="0"/>
    <interval begin="56.00" end="60.00" id="TLS354512_actuated_InductLoopOn_-35202667#0_1" nVehContrib="0" flow="0.00" occupancy="100.00" speed="-1.00" length="-1.00" nVehEntered="0"/>
    <interval begin="56.00" end="60.00" id="TLS354512_actuated_InductLoopOn_374366365#4_0" nVehContrib="0" flow="0.00" occupancy="0.00" speed="-1.00" length="-1.00" nVehEntered="0"/>
    <interval begin="56.00" end="60.00" id="TLS354512_actuated_InductLoopOn_33708057#3_0" nVehContrib="0" flow="0.00" occupancy="0.00" speed="-1.00" length="-1.00" nVehEntered="0"/>
    <interval begin="56.00" end="60.00" id="TLS354512_actuated_InductLoopOn_33708057#3_1" nVehContrib="0" flow="0.00" occupancy="0.00" speed="-1.00" length="-1.00" nVehEntered="0"/>
    <interval begin="60.00" end="64.00" id="TLS354512_actuated_InductLoopOn_-138139938#0.74_0" nVehContrib="0" flow="0.00" occupancy="0.00" speed="-1.00" length="-1.00" nVehEntered="0"/>
    <interval begin="60.00" end="64.00" id="TLS354512_actuated_InductLoopOn_-138139938#0.74_1" nVehContrib="1" flow="900.00" occupancy="11.33" speed="11.03" length="5.00" nVehEntered="1"/>
    <interval begin="60.00" end="64.00" id="TLS354512_actuated_InductLoopOn_-35202667#0_0" nVehContrib="0" flow="0.00" occupancy="0.00" speed="-1.00" length="-1.00" nVehEntered="0"/>
    <interval begin="60.00" end="64.00" id="TLS354512_actuated_InductLoopOn_-35202667#0_1" nVehContrib="0" flow="0.00" occupancy="100.00" speed="-1.00" length="-1.00" nVehEntered="0"/>
    <interval begin="60.00" end="64.00" id="TLS354512_actuated_InductLoopOn_374366365#4_0" nVehContrib="1" flow="900.00" occupancy="10.38" speed="12.04" length="5.00" nVehEntered="1"/>
    <interval begin="60.00" end="64.00" id="TLS354512_actuated_InductLoopOn_33708057#3_0" nVehContrib="0" flow="0.00" occupancy="0.00" speed="-1.00" length="-1.00" nVehEntered="0"/>
    <interval begin="60.00" end="64.00" id="TLS354512_actuated_InductLoopOn_33708057#3_1" nVehContrib="0" flow="0.00" occupancy="0.00" speed="-1.00" length="-1.00" nVehEntered="0"/>
    <interval begin="64.00" end="68.00" id="TLS354512_actuated_InductLoopOn_-138139938#0.74_0" nVehContrib="0" flow="0.00" occupancy="0.00" speed="-1.00" length="-1.00" nVehEntered="0"/>
    <interval begin="64.00" end="68.00" id="TLS354512_actuated_InductLoopOn_-138139938#0.74_1" nVehContrib="0" flow="0.00" occupancy="0.00" speed="-1.00" length="-1.00" nVehEntered="0"/>
    <interval begin="64.00" end="68.00" id="TLS354512_actuated_InductLoopOn_-35202667#0_0" nVehContrib="0" flow="0.00" occupancy="0.00" speed="-1.00" length="-1.00" nVehEntered="0"/>
    <interval begin="64.00" end="68.00" id="TLS354512_actuated_InductLoopOn_-35202667#0_1" nVehContrib="0" flow="0.00" occupancy="100.00" speed="-1.00" length="-1.00" nVehEntered="0"/>
    <interval begin="64.00" end="68.00" id="TLS354512_actuated_InductLoopOn_374366365#4_0" nVehContrib="2" flow="1800.00" occupancy="30.75" speed="8.60" length="5.00" nVehEntered="2"/>
    <interval begin="64.00" end="68.00" id="TLS354512_actuated_InductLoopOn_33708057#3_0" nVehContrib="0" flow="0.00" occupancy="0.00" speed="-1.00" length="-1.00" nVehEntered="0"/>
    <interval begin="64.00" end="68.00" id="TLS354512_actuated_InductLoopOn_33708057#3_1" nVehContrib="0" flow="0.00" occupancy="0.00" speed="-1.00" length="-1.00" nVehEntered="0"/>
    <interval begin="68.00" end="72.00" id="TLS354512_actuated_InductLoopOn_-138139938#0.74_0" nVehContrib="0" flow="0.00" occupancy="0.00" speed="-1.00" length="-1.00" nVehEntered="0"/>
    <interval begin="68.00" end="72.00" id="TLS354512_actuated_InductLoopOn_-138139938#0.74_1" nVehContrib="0" flow="0.00" occupancy="0.92" speed="-1.00" length="-1.00" nVehEntered="1"/>
    <interval begin="68.00" end="72.00" id="TLS354512_actuated_InductLoopOn_-35202667#0_0" nVehContrib="0" flow="0.00" occupancy="0.00" speed="-1.00" length="-1.00" nVehEntered="0"/>
    <interval begin="68.00" end="72.00" id="TLS354512_actuated_InductLoopOn_-35202667#0_1" nVehContrib="1" flow="900.00" occupancy="58.41" speed="0.61" length="12.00" nVehEntered="0"/>
    <interval begin="68.00" end="72.00" id="TLS354512_actuated_InductLoopOn_374366365#4_0" nVehContrib="0" flow="0.00" occupancy="69.76" speed="-1.00" length="-1.00" nVehEntered="1"/>
    <interval begin="68.00" end="72.00" id="TLS354512_actuated_InductLoopOn_33708057#3_0" nVehContrib="0" flow="0.00" occupancy="0.00" speed="-1.00" length="-1.00" nVehEntered="0"/>
    <interval begin="68.00" end="72.00" id="TLS354512_actuated_InductLoopOn_33708057#3_1" nVehContrib="0" flow="0.00" occupancy="0.00" speed="-1.00" length="-1.00" nVehEntered="0"/>
    <interval begin="72.00" end="76.00" id="TLS354512_actuated_InductLoopOn_-138139938#0.74_0" nVehContrib="0" flow="0.00" occupancy="0.00" speed="-1.00" length="-1.00" nVehEntered="0"/>
    <interval begin="72.00" end="76.00" id="TLS354512_actuated_InductLoopOn_-138139938#0.74_1" nVehContrib="1" flow="900.00" occupancy="14.98" speed="7.86" length="5.00" nVehEntered="0"/>
    <interval begin="72.00" end="76.00" id="TLS354512_actuated_InductLoopOn_-35202667#0_0" nVehContrib="0" flow="0.00" occupancy="0.00" speed="-1.00" length="-1.00" nVehEntered="0"/>
    <interval begin="72.00" end="76.00" id="TLS354512_actuated_InductLoopOn_-35202667#0_1" nVehContrib="0" flow="0.00" occupancy="0.00" speed="-1.00" length="-1.00" nVehEntered="0"/>
    <interval begin="72.00" end="76.00" id="TLS354512_actuated_InductLoopOn_374366365#4_0" nVehContrib="0" flow="0.00" occupancy="100.00" speed="-1.00" length="-1.00" nVehEntered="0"/>
    <interval begin="72.00" end="76.00" id="TLS354512_actuated_InductLoopOn_33708057#3_0" nVehContrib="0" flow="0.00" occupancy="0.00" speed="-1.00" length="-1.00" nVehEntered="0"/>
    <interval begin="72.00" end="76.00" id="TLS354512_actuated_InductLoopOn_33708057#3_1" nVehContrib="0" flow="0.00" occupancy="0.00" speed="-1.00" length="-1.00" nVehEntered="0"/>
    <interval begin="76.00" end="80.00" id="TLS354512_actuated_InductLoopOn_-138139938#0.74_0" nVehContrib="0" flow="0.00" occupancy="0.00" speed="-1.00" length="-1.00" nVehEntered="0"/>
    <interval begin="76.00" end="80.00" id="TLS354512_actuated_InductLoopOn_-138139938#0.74_1" nVehContrib="0" flow="0.00" occupancy="0.00" speed="-1.00" length="-1.00" nVehEntered="0"/>
    <interval begin="76.00" end="80.00" id="TLS354512_actuated_InductLoopOn_-35202667#0_0" nVehContrib="0" flow="0.00" occupancy="0.00" speed="-1.00" length="-1.00" nVehEntered="0"/>
    <interval begin="76.00" end="80.00" id="TLS354512_actuated_InductLoopOn_-35202667#0_1" nVehContrib="0" flow="0.00" occupancy="0.00" speed="-1.00" length="-1.00" nVehEntered="0"/>
    <interval begin="76.00" end="80.00" id="TLS354512_actuated_InductLoopOn_374366365#4_0" nVehContrib="0" flow="0.00" occupancy="100.00" speed="-1.00" length="-1.00" nVehEntered="0"/>
    <interval begin="76.00" end="80.00" id="TLS354512_actuated_InductLoopOn_33708057#3_0" nVehContrib="0" flow="0.00" occupancy="0.00" speed="-1.00" length="-1.00" nVehEntered="0"/>
    <interval begin="76.00" end="80.00" id="TLS354512_actuated_InductLoopOn_33708057#3_1" nVehContrib="0" flow="0.00" occupancy="0.00" speed="-1.00" length="-1.00" nVehEntered="0"/>
    <interval begin="80.00" end="84.00" id="TLS354512_actuated_InductLoopOn_-138139938#0.74_0" nVehContrib="0" flow="0.00" occupancy="0.00" speed="-1.00" length="-1.00" nVehEntered="0"/>
    <interval begin="80.00" end="84.00" id="TLS354512_actuated_InductLoopOn_-138139938#0.74_1" nVehContrib="0" flow="0.00" occupancy="0.00" speed="-1.00" length="-1.00" nVehEntered="0"/>
    <interval begin="80.00" end="84.00" id="TLS354512_actuated_InductLoopOn_-35202667#0_0" nVehContrib="0" flow="0.00" occupancy="0.00" speed="-1.00" length="-1.00" nVehEntered="0"/>
    <interval begin="80.00" end="84.00" id="TLS354512_actuated_InductLoopOn_-35202667#0_1" nVehContrib="0" flow="0.00" occupancy="0.00" speed="-1.00" length="-1.00" nVehEntered="0"/>
    <interval begin="80.00" end="84.00" id="TLS354512_actuated_InductLoopOn_374366365#4_0" nVehContrib="0" flow="0.00" occupancy="100.00" speed="-1.00" length="-1.00" nVehEntered="0"/>
    <interval begin="80.00" end="84.00" id="TLS354512_actuated_InductLoopOn_33708057#3_0" nVehContrib="0" flow="0.00" occupancy="0.00" speed="-1.00" length="-1.00" nVehEntered="0"/>
    <interval begin="80.00" end="84.00" id="TLS354512_actuated_InductLoopOn_33708057#3_1" nVehContrib="0" flow="0.00" occupancy="0.00" speed="-1.00" length="-1.00" nVehEntered="0"/>
    <interval begin="84.00" end="88.00" id="TLS354512_actuated_InductLoopOn_-138139938#0.74_0" nVehContrib="0" flow="0.00" occupancy="0.00" speed="-1.00" length="-1.00" nVehEntered="0"/>
    <interval begin="84.00" end="88.00" id="TLS354512_actuated_InductLoopOn_-138139938#0.74_1" nVehContrib="0" flow="0.00" occupancy="0.00" speed="-1.00" length="-1.00" nVehEntered="0"/>
    <interval begin="84.00" end="88.00" id="TLS354512_actuated_InductLoopOn_-35202667#0_0" nVehContrib="0" flow="0.00" occupancy="0.00" speed="-1.00" length="-1.00" nVehEntered="0"/>
    <interval begin="84.00" end="88.00" id="TLS354512_actuated_InductLoopOn_-35202667#0_1" nVehContrib="0" flow="0.00" occupancy="0.00" speed="-1.00" length="-1.00" nVehEntered="0"/>
    <interval begin="84.00" end="88.00" id="TLS354512_actuated_InductLoopOn_374366365#4_0" nVehContrib="0" flow="0.00" occupancy="100.00" speed="-1.00" length="-1.00" nVehEntered="0"/>
    <interval begin="84.00" end="88.00" id="TLS354512_actuated_InductLoopOn_33708057#3_0" nVehContrib="0" flow="0.00" occupancy="0.00" speed="-1.00" length="-1.00" nVehEntered="0"/>
    <interval begin="84.00" end="88.00" id="TLS354512_actuated_InductLoopOn_33708057#3_1" nVehContrib="0" flow="0.00" occupancy="0.00" speed="-1.00" length="-1.00" nVehEntered="0"/>
    <interval begin="88.00" end="92.00" id="TLS354512_actuated_InductLoopOn_-138139938#0.74_0" nVehContrib="0" flow="0.00" occupancy="0.00" speed="-1.00" length="-1.00" nVehEntered="0"/>
    <interval begin="88.00" end="92.00" id="TLS354512_actuated_InductLoopOn_-138139938#0.74_1" nVehContrib="0" flow="0.00" occupancy="26.47" speed="-1.00" length="-1.00" nVehEntered="1"/>