<?xml version="1.0" encoding="UTF-8"?>

<!-- generated on Sun 04 Mar 2018 09:22:57 PM GMT by SUMO gui Version 0.32.0
<?xml version="1.0" encoding="UTF-8"?>

<configuration xmlns:xsi="http://www.w3.org/2001/XMLSchema-instance" xsi:noNamespaceSchemaLocation="http://sumo.dlr.de/xsd/sumoConfiguration.xsd">

    <input>
        <net-file value="osm.net.xml"/>
        <route-files value="osm.randomtrips.rou.xml"/>
        <additional-files value="osm.poly.xml,osm_stops.add.xml,detectors/e1.add.xml"/>
    </input>

    <processing>
        <ignore-route-errors value="true"/>
    </processing>

    <routing>
        <device.rerouting.adaptation-steps value="180"/>
    </routing>

    <report>
        <verbose value="true"/>
        <duration-log.statistics value="true"/>
        <no-step-log value="true"/>
    </report>

    <traci_server>
        <remote-port value="55885"/>
    </traci_server>

    <gui_only>
        <gui-settings-file value="osm.view.xml"/>
    </gui_only>

</configuration>
-->

<detector xmlns:xsi="http://www.w3.org/2001/XMLSchema-instance" xsi:noNamespaceSchemaLocation="http://sumo.dlr.de/xsd/det_e1_file.xsd">
    <interval begin="0.00" end="93.00" id="e1Detector_73552050#2_0_79" nVehContrib="6" flow="232.26" occupancy="10.84" speed="4.90" length="5.00" nVehEntered="6"/>
</detector>
